46
	Energy:     140.5914951
O         -2.73299        2.46525        0.92149
C         -3.56637        3.07886       -0.05451
C         -2.72779        4.04834       -0.92358
C         -1.53393        3.31786       -1.58180
H         -2.31516        4.81838       -0.23426
O         -3.51320        4.71358       -1.88096
C         -0.74249        2.55460       -0.49674
O         -1.92905        2.46143       -2.63107
H         -0.87827        4.08091       -2.04996
C         -1.72990        1.66567        0.31054
C         -1.02650        0.88315        1.38787
H         -2.19691        0.90766       -0.35727
O         -0.46848        1.45737        2.30964
O         -1.03859       -0.46351        1.35872
O         -0.14395        3.50290        0.37564
H         -0.00592        1.90963       -1.00960
C          1.27562        3.44306        0.46378
C          2.00552        4.29651       -0.62474
C          3.52417        4.10503       -0.41762
O          1.63587        3.89926       -1.91991
H          1.71357        5.36478       -0.49267
C          3.92800        2.58426       -0.49346
O          3.91554        4.72598        0.78959
H          4.08780        4.64764       -1.20763
C          2.65584        1.66880       -0.34315
O          1.78983        2.11910        0.68792
H          1.48815        3.96476        1.41768
C          2.86142        0.17642       -0.20897
H          2.10979        1.72208       -1.30327
O          3.96865       -0.33130       -0.18888
O          1.77973       -0.62403       -0.15018
O         -4.56495        3.83839        0.59988
H         -4.04424        2.31104       -0.70915
C         -5.55030        2.98601        1.14142
H         -5.11505        2.26048        1.86379
H         -6.27493        3.60677        1.70706
H         -6.11945        2.46952        0.33746
H         -3.97922        4.02415       -2.42177
H         -2.62530        1.83670       -2.31399
H          1.95154        4.60742       -2.54000
H          3.61056        4.18457        1.55917
C          5.11284        2.28162        0.45308
H          4.30016        2.38177       -1.52331
H          4.81129        2.33726        1.51883
H          5.93433        3.00580        0.26547
H          5.55286        1.28424        0.27862
