54
	Energy:     104.1859838
C         -1.26596       -0.91268        2.85259
C         -0.41899       -0.96738        1.57096
O          0.41152       -2.11754        1.65019
C          1.39876       -2.10509        0.62473
C         -1.27111       -1.02718        0.26807
H          0.20285       -0.04123        1.58018
C         -2.22179        0.17127        0.10454
H         -2.96933        0.20217        0.92250
H         -1.65945        1.12892        0.09710
H         -2.78470        0.07881       -0.84868
C         -0.30853       -1.12208       -0.94148
H         -1.90177       -1.94105        0.29756
O          0.40355        0.08548       -1.06676
H         -0.59941       -0.85439        3.74435
O         -2.11245       -2.02695        2.94965
H         -1.88147        0.00899        2.88387
H          0.74865        0.12261       -1.99712
C          0.69411       -2.28601       -0.74270
H         -0.90874       -1.28277       -1.86848
H          1.44891       -2.24013       -1.56053
N          0.02458       -3.59515       -0.82529
H         -0.64709       -3.74594       -0.03997
H          0.73744       -4.35793       -0.79453
H         -1.57168       -2.76504        3.33495
H         -0.48553       -3.67643       -1.73445
N          2.89372       -3.15054        5.20362
C          4.00123       -3.03753        4.23589
C          3.53846       -2.49241        2.85683
C          2.63977       -3.52581        2.11866
C          4.66840       -4.41789        4.00237
H          4.75145       -2.33086        4.65489
O          5.06186       -4.98881        5.23929
O          3.73715       -5.29956        3.39607
C          3.41508       -4.87015        2.08057
H          4.34378       -4.75400        1.47179
C          2.59118       -5.97089        1.40118
O          2.36241       -3.14232        0.77657
H          1.95940       -1.14221        0.62766
H          1.70593       -3.72571        2.68628
O          3.33015       -7.16094        1.37930
H          2.36044       -5.66686        0.35701
H          1.64588       -6.12827        1.96718
H          2.77153       -7.82385        0.89620
O          2.93892       -1.22753        2.98523
H          4.44950       -2.35492        2.23211
H          2.04693       -1.35046        3.39772
H          2.47132       -2.21382        5.38988
H          2.15227       -3.80843        4.87542
H          3.25807       -3.49976        6.11899
C          6.39533       -4.65374        5.55562
H          6.62089       -5.04421        6.56910
H          6.54521       -3.55305        5.59379
H          7.10493       -5.13858        4.85007
H          5.55027       -4.30763        3.31929
